<?xml version="1.0"?>
<VTKFile type="UnstructuredGrid"  version="0.1"  >
<UnstructuredGrid>
<Piece  NumberOfPoints="6299" NumberOfCells="32707">
<Points>
<DataArray  type="Float64"  NumberOfComponents="3"  format="ascii">80.85955831204939 20.06927711602626 27.31994486070343  81.28315015113819 17.55968750715734 28.27681218217432  78.20931483196836 18.44427230720109 27.19218715491996  80.29047026579539 16.41933549202789 26.01688982757663  55.6145101780232 2.438731074631971 29.26857401084249  55.14098500407967 2.681987659432656 26.59270849663146  53.1350485261414 2.181993979438644 27.89985764069007  55.12242657220027 4.97270059637053 28.38511020607664  28.29948065209664 26.67737162203602 30.94026309374044  30.88649751190811 25.2966555687216 28.11195766492752  28.58382518380601 28.41368022713658 28.55673069628036  31.16752261459835 26.92144111463646 30.23911299660564  71.37641000600752 15.58424281954705 4.285219575337599  74.12548274332784 15.63103496107004 5.886376192185125  72.94674248383517 17.49090577731004 4.337395210195953  71.35069450549528 17.86627530701888 6.571156143438436  30.77209419006967 28.18045259196828 33.4  32.43768386863096 25.77453771543883 33.4  33.58983761897473 27.72420651305604 30.93755868645615  33.18589743589745 28.60345832729665 33.4  58.79632834603375 11.0659570524519 7.493263343830759  58.53921169811337 14.43733720893218 8.391882054085455  58.46079660083426 12.76272518710584 5.221059749463882  56.30639827926032 14.39730651343508 6.385151433719733  0 0 2.226666666666667  2.141025641025641 0 0  0 0 0  0 1.715596960781644 1.715596960781644  34.02186565540135 6.982700684448049 10.30526506333041  32.77457904311648 9.23882336045725 9.383263974788491  35.18505018267274 9.556469544726948 8.888325007088014  34.1100951187201 6.861347974038859 7.37078763390802  0 10.02 2.290759116290728  0 12.24666666666667 2.810384984989202  0 10.14195989237245 3.987847124170322  1.990312869317797 11.84520967349283 1.982783521690507  30.31381677425964 3.884586082226323 24.46688602320664  28.40063683902653 6.170032616352135 26.01063420391697  30.90801076556146 6.061608093027716 27.55500416828378  31.21516909448749 7.976608856794828 25.33640454074698  83.5 0 33.4  81.35897435897434 0 33.4  83.5 1.71559696078164 31.68440303921836  83.5 0 31.17333333333333  23.89516807162764 4.392128949897264 7.82658767893023  22.5459721709081 7.866189373192658 9.756277953838833  24.9397184497958 6.097183097620611 9.085811740204251  20.80218243462185 6.605439725384642 8.282179220685801  57.69384763179855 11.21897099805127 14.86116397243179  60.94455506166331 8.620006413340807 15.41570354063276  59.97965019653626 11.30559982246174 16.77095410233018  58.30026652038815 8.384034425279189 15.64593711184232  8.790489864261707 10.87259117273607 24.36160154142082  7.621943654823277 12.90974517529614 24.49060263241567  9.777872852639153 12.634375600948 27.18236502359733  10.02636453261344 12.85660333761505 23.82051001672166  35.33142288591078 25.01915666600775 33.4  36.93059608024123 23.84888564818216 31.17621848579734  35.72900033396002 26.31711645546293 30.27126363496856  37.46794871794873 27.11190208745816 33.4  22.91099442450052 19.4289764273363 23.18638742147025  21.35423211418543 19.71585724578994 25.27510331137943  22.46202562319598 18.58217174887452 27.09726243382513  23.30349160229972 21.4424930310362 24.77342441867517  42.34723118385985 8.716610181325432 18.97460154548619  44.75689998170918 7.11766193980816 20.68982347105372  43.93914780728186 8.688417657451607 17.30790659742678  44.12807202248409 9.26752463744667 19.56408101037929  30.29331538242722 24.12264336812021 15.26950058443603  32.58758990890907 24.87374319301654 16.68639320704155  30.88998091495523 21.39882811852543 15.51496337628997  33.05438890715615 22.68442393768361 15.53453321597087  54.33120493067848 3.648115678751507 8.522712452393044  54.81773452941825 4.714755701419999 4.897504859503656  51.7526687137206 2.586640392481018 6.651761510860029  52.39197545747026 5.419366249746361 6.359572051876724  11.3662571829369 2.670839505003391 14.31089253274021  11.40068351887408 0 14.23722637582872  8.956698151455646 0 14.78362284527996  8.474493067009732 2.149043636646143 13.98690032530356  44.32562262245813 5.006435111024295 0  45.90753156727094 4.941514272676208 1.926274576424952  43.89102564102566 2.746342587382195 0  46.0320512820513 3.46209253846722 0  58.93019459709878 30.68515990507438 0  56.7371794871795 30.60563149297461 0  58.87820512820515 27.90592126568854 0  57.25521486453649 27.49035929878205 2.524868624545102  46.83632061786658 10.21311953779388 15.42257872837651  49.19813281794458 9.171244427372397 12.21551499733238  46.08927130668524 11.08760027894446 12.33153916834129  48.54622703741978 12.66368390455647 14.02677103302352  51.29526772662588 24.64495364089528 5.352019080263388  51.04305225915543 26.00778063976498 2.796565005888819  50.24361462604872 23.6981790480409 2.130885211506762  48.8987589605915 24.11948728184886 4.23572540534179  35.88341285507516 31.07057148203606 28.88660260786758  32.77850309849791 30.54667688980499 26.08759518032509  36.44535310449072 30.16650629694057 26.73601329454156  33.54190201937342 28.62180801796924 28.44920936136816  72.26493756372588 4.223978826358099 19.0676866876462  71.53860241146403 4.939225503374754 22.22656242455209  74.20029266617729 6.415900929941595 21.13530261763173  70.76484777669394 5.806293485950679 20.0313846173484  29.09156326991381 9.07090855513448 26.12030960312914  27.99935930126574 6.559525034591077 28.37614671985841  80.86044679140748 6.956973816864233 2.273561074762955  79.48344323405527 8.417344536563704 4.021449583740422  81.56709531204784 9.409778892253374 2.479783915163607  78.02184382638542 9.641560004452039 2.176429444965279  59.51503231548296 24.81528164038325 16.9712727972205  57.72541739380436 25.57994395581991 19.15077167760198  56.86561398417098 24.04254924157603 17.2321982566537  60.23366034694181 23.52200582669455 19.49092690369169  35.93994082833857 33.4 19.76374451102147  36.78633838571665 30.88227598044567 18.66291219257461  34.45118037226093 33.4 16.7  37.64309511703314 33.4 17.0425457335734  30.1572591042113 20.24982039216329 33.4  33.27123782528955 21.24533128310547 33.4  31.55686253933194 21.23988227768399 30.39313557927762  31.0448717948718 23.20107897327366 33.4  59.3099773744293 7.392876167269026 11.53225422638671  60.88660624109419 8.35344161137753 13.04471749416512  61.19945213687598 8.830599621457933 8.704874633871709  59.10952377156435 11.04388577442988 11.02119046291319  5.662605567500911 6.598208610873525 14.67776395769781  5.78230802778088 9.222159673990282 15.71969716823432  3.665786080945959 7.175775944356333 18.56968547844673  7.532031953562608 7.533786584829548 16.72456538345397  6.400395574838524 2.717982879284057 17.68522243357132  4.000402416467441 0 19.08040168616738  3.832420837082427 0 16.7  6.465339640936568 0 19.04824117175799  49.79041923861752 0 21.12266279599808  46.11332059519344 0 19.85487740980162  46.16872056709553 2.178031692374102 22.18217890323098  47.60621434185646 1.841734249299565 19.29096809937841  52.2521834901892 0 26.38437599999315  50.89554054734988 2.080964857079926 28.6895698807562  51.27714502358161 2.973803742351464 26.52013100367007  10.26038258825727 25.38792863282383 7.81367626520856  12.09202336578011 25.08295196870973 4.677827139354713  8.531358970807464 24.8169544283765 6.105397199745534  9.65817485377571 26.69517817704358 5.257906604974198  69.27078287460145 27.40538402706844 33.4  69.58333333333334 30.47481190078498 33.4  71.72435897435898 28.23383531391742 33.4  68.62753495165379 28.79838332534634 30.74608630763784  54.6340276609701 16.30960734157471 28.11706393341923  55.16778289135797 18.72927535774328 27.99844413553243  55.21266862063446 17.46057992246539 30.79241210094085  57.93670088149415 17.90642207273799 29.03471893652505  27.10615015707009 13.23199722071811 30.34577243691709  27.05265547042166 12.52877864894669 33.4  26.96493812321689 15.60354731397779 33.4  24.44228991635473 13.7969022034934 33.4  57.38527869879474 7.789585747964999 29.72134397733205  59.53136927671145 8.028966127797974 28.78621858447427  58.92707600731019 10.29674548208969 28.61453958155355  59.79085981524442 9.162935250567948 30.83176152566505  28.6999776657866 24.27092933358619 2.671041749261782  26.66285458983007 27.09484164693483 2.732839672306686  27.11325748336304 25.06255014092105 0  25.74636412575083 24.59087982959351 3.581843121797612  12.79182681913995 30.08201155537278 3.279545166464522  14.25213309864248 28.2462618809326 0  11.77564102564103 28.90748452227917 0  13.91666666666667 30.63338137681727 0  52.42728407350416 3.21349174637596 3.229374408825824  50.01080022624691 4.778870255801477 4.798100638461356  56.17877979586768 8.610683947698508 21.31774790025791  54.9811752638917 8.729467167998793 19.0806940566121  53.29701970044444 6.368019935138976 19.17313151387213  53.3672309699214 9.476221724330909 20.89461726787621  32.60479969798943 4.845112833164562 25.80878413681803  34.48159307007042 7.496359025060098 26.64919093398217  34.86862474132606 5.194318635314433 26.34936670901271  33.43138106349817 6.807060092923637 24.11297636678944  67.54465958593981 21.09200509156324 12.14192735449235  65.75137575995822 22.84381306188846 13.34739057496857  68.05173312780315 23.35792046561394 14.81475309151249  68.28447276379403 23.67902393794975 11.65699688597687  76.59564872412552 16.20037372761852 14.1166687799048  78.38427913907873 15.98031946380698 15.87611105554039  78.42596202307487 17.14816996208769 12.64596060061562  77.84885029274029 18.12805474728169 14.73890425147885  78.14743589743588 2.718519502500352 0  79.2179487179487 0 0  80.71804252183465 2.758953196460774 0  79.26567479585172 2.249502945957879 2.249502945957878  80.65283650179859 21.15333333333333 0  83.5 20.04 0  83.5 22.26666666666667 0  80.44455488757913 21.27200584831629 3.058411473848937  33.75911201720374 12.11248425385216 2.690332090915856  30.86825543964824 11.22481259037909 0
[...]
<PointData  Vectors="f_38"> 
<DataArray  type="Float64"  Name="f_38"  NumberOfComponents="3" format="ascii">3.3897136356753679e+00 -3.9578905992340300e-03 -2.1970591843085072e-02  3.2251039025986512e+00 -6.9529764326998877e-03 -2.1093241499802042e-02  3.4107970500841072e+00 -7.6855253381034926e-03 -3.4894688995083946e-02  3.5073995021373143e+00 -9.6424440191328672e-03 -2.4943741583144777e-02  2.2406696431010498e+00 4.7279462672346027e-02 -7.7362473983407717e-02  2.7822729170905633e+00 7.6592730617005597e-02 -1.5746783553936444e-01  2.4380734527058077e+00 5.4501539830925705e-02 -1.2502883198698667e-01  3.6251894383095848e+00 1.6768298063287163e-01 -1.5689923899345443e-01  2.4160068068448637e+00 1.1215074157609180e-01 4.6604762635948913e-02  3.5353053880785810e+00 2.1515562933841495e-01 2.2419585654832258e-01  3.1155023162969404e+00 1.0282600182503571e-01 1.0935385890123056e-01  2.9200147827329137e+00 1.4773945412525402e-01 9.8153313132596759e-02  2.9803896380228596e+00 6.4055895586965549e-03 2.1462187087598525e-03  3.3330799949622030e+00 2.8028054090274697e-03 3.2049263715379982e-03  2.9977656045101058e+00 -7.6753249150915345e-03 -1.5187924908177182e-03  3.4113291388746276e+00 -1.5236125519406051e-02 2.2462929717986184e-02  1.7655760221364212e-03 1.3311750886555070e-04 -3.2992562586279888e-05  1.9163874221862507e-03 1.8795743458107977e-04 -2.4517161732833990e-05  2.6621147753955405e+00 1.3111850676423947e-01 6.9351453247249201e-02  1.9062652830251661e-03 8.4216750244694164e-05 -2.0079820488200922e-05  3.8373677659084815e+00 3.0006187259888134e-01 3.7542828907009684e-01  3.3837191059118719e+00 1.7855762782056797e-01 5.0293150802919118e-01  3.4988203131204010e+00 1.9288876769735538e-01 2.7206831724885810e-01  3.5785465812417430e+00 1.5324231434016056e-01 5.2925527129201233e-01  -7.5678406633500200e-02 -2.2567090395403101e-02 8.6451421248712346e-03  -3.3792488819061384e-02 4.2205105885296974e-02 3.9048938955097007e-02  -1.0189317693059774e-01 -2.0266980583244207e-02 -1.8617814423778557e-02  7.9323729240692229e+00 -3.7630396944647857e-03 -3.6340361005123148e-03  3.8488595144128830e+00 -6.5911497906920347e-01 -4.5700841958990324e-01  3.6557856558933186e+00 -5.8981559253580462e-01 -5.8117209954492832e-01  3.9452998707797806e+00 -7.3957779391160494e-01 -8.2699985935587572e-01  3.8907941997785960e+00 -3.7310760133779408e-01 -3.5865703095260026e-01  7.8868058837635555e+00 -3.2470810179399456e-02 -2.1590683934789714e-02  7.9213497241565083e+00 4.7827757674951902e-03 2.4553362090842367e-02  7.9150066058530832e+00 8.0823129135497666e-03 7.8377938940905334e-03  -6.9951615758445196e-01 -1.3724519262512327e-01 -2.0848665374918995e-01  3.1914912284729184e+00 -1.7241171083241733e-01 1.7118094539105905e-01  3.4783599181739788e+00 -1.7256111023793513e-01 1.6607012369908847e-01  3.5057309029465533e+00 -1.9339326102393142e-01 1.8646928313015756e-01  3.6709498323843355e+00 -3.5226957510735002e-01 3.4283058568685804e-01  1.0772582020978591e-03 7.6279646101026466e-07 -9.3511882937765981e-06  1.0922097281001217e-03 -8.2381062112738133e-06 7.0520197356323242e-06  9.1172188606776972e-01 -3.8300017062451580e-04 1.4695937974518099e-04  1.0878916226954884e-03 3.6827972780046242e-07 5.0737747183191650e-07  3.1004902911742662e+00 -4.4782590849523761e-02 -6.4630113741808090e-02  3.4932588271546789e+00 -9.6008861839261481e-02 -5.9106831044748814e-02  3.4214372794816570e+00 -1.0983372198502239e-01 -9.7165597163414108e-02  3.4492986669721524e+00 -6.5921091432179876e-02 -3.7213041713255027e-02  2.6343932144927633e+00 5.5412709040046237e-01 1.9782122422120288e-01  3.3661198992977104e+00 3.7175251065880460e-01 8.9209987363856560e-02  2.8398145223601032e+00 4.3176653011876959e-01 2.3442872545700838e-03  3.2931773586598911e+00 5.2890443879117577e-01 8.5435853920926327e-02  2.9234310547409215e+00 1.8916866712404445e-01 -1.4461843593229368e-01  2.9791553650328337e+00 -6.4399111188467939e-01 -9.4024168658740123e-02  3.2094076886448120e+00 -3.9571116256205741e-02 -7.5204221699148227e-02  3.3548280464241986e+00 -1.5581283332392437e-01 5.5655136633143511e-02  2.2285032920612369e-03 1.3554995319678317e-04 -9.7691296969605818e-05  2.9267793388480188e+00 1.6747328052707930e-01 1.0555403636521568e-01  3.2908344809731385e+00 1.8699562141517873e-01 1.3155997867113162e-01  2.2856174747881014e-03 2.1252075337284838e-05 -1.5988646519319400e-05  3.4059214471303969e+00 2.1750949446167706e-02 1.3543082759482677e-01  3.4239313256784176e+00 -1.7097723186336705e-02 9.1432391879736355e-02  3.3396044902218400e+00 -1.8605558872592777e-02 1.1481499012160809e-01  3.4425685938395238e+00 3.8312844214441054e-02 1.2470878509026216e-01  3.4619910164830005e-03 2.6963039995529293e-03 -1.0866877664393111e-03  4.1665774586723483e+00 4.3521067753781756e-01 -9.7417998388048155e-02  3.2043048751359240e-04 2.3225978833228112e-03 1.4081740906420807e-04  -2.5663889473192441e-04 2.1815830754314158e-03 -6.8053101121387505e-04  3.1759619423565946e+00 6.9823290589156783e-01 -1.4656086622812331e-01  3.2346519853182683e+00 1.0913192851652771e+00 3.6151279255880573e-03  2.5578147086073497e+00 8.3978043510917733e-01 -2.1286308395821132e-01  2.4880389326957668e+00 1.4845818526352734e+00 -2.8079710547298431e-01  3.4733487663981335e+00 1.7762349037577774e-01 2.2516876708179029e-01  3.5388622774540219e+00 1.5264260105860294e-01 1.5260135692868965e-01  2.9550875623612862e+00 8.9121194794342218e-02 1.7189115812527689e-01  4.1959776114240936e+00 2.3773633827243293e-01 2.3396631169510512e-01  2.2337360348822020e+00 1.7376072820803612e-01 7.3732555981553094e-02  9.9986401438875196e-04 -8.6605481916643065e-04 -1.2005621367892822e-04  3.2277091579482786e-03 -1.5321104098144894e-03 -6.5726499709203249e-04  2.1819542874781268e+00 3.4537190406327072e-02 1.8499594270073644e-01  2.0051243902083544e-03 2.3584409786541814e-04 1.8781859895392652e-05  2.5674395346767911e+00 7.0695834926964185e-02 2.6190008666108665e-02  2.0812112859801106e-03 5.8973914831338768e-05 -6.7218378038897542e-05  1.8273848234169141e-03 1.2945485702498666e-04 6.2981040753772629e-06  1.0363605823904892e-03 -6.2220140650282583e-06 -1.6947403217841534e-05  1.0631494009229843e-03 -1.5826540626955239e-05 -6.1850691111593476e-05  1.0109078377719223e-03 -3.3528638157500810e-06 -4.0663633595267642e-05  2.4596263806059211e+00 -9.7932222426559634e-02 5.6855438660493883e-02  -1.9284496887482152e-03 3.7289597396888161e-04 1.4253065121913380e-04  2.8678571056900353e+00 8.6631901900675301e-01 4.5867194638757441e-01  -1.7083260478843679e-03 3.0261891900160869e-04 3.6793844060246960e-04  -1.4208807778849294e-03 -7.8383785812010309e-05 -3.1145722636099723e-05  4.3559184713828607e+00 -2.4713333111953290e-01 3.6546916337618224e-01  3.1999728533845064e+00 -1.7470171632908038e-01 1.2911189492496011e-01  2.7224370530207080e+00 -1.5751514143411122e-01 1.1917977407227022e-01  4.2341090321418760e+00 -1.6895887831475118e-01 3.0686912093011731e-01  2.5963230595141851e+00 5.2589043847349838e-02 9.1342005555037201e-02  2.9135372046516488e+00 1.0609563279847266e-01 1.7302296111145257e-01  3.3665473157638215e+00 1.3056035781337735e-01 1.8024571356235963e-01  3.4160170212077081e+00 1.5675472602160026e-01 1.6669096039416997e-01  2.9669531100444413e+00 1.9018382828656650e-04 -1.5561423441879539e-02  3.1781254808034500e+00 7.1128052286196664e-03 -3.5340479593221862e-02  3.4148935796290067e+00 4.8764216851612981e-03 -2.5867129607549600e-02  3.3354624267734061e+00 1.9571390781604314e-02 -3.8658694503410460e-02  3.5722725261942463e+00 -2.4564988353287687e-01 2.6844550523673416e-01  3.2819682953958407e+00 -1.3630721688080361e-01 1.1536829780640161e-01  2.0203521829215432e+00 -1.8489501794357749e-03 -7.9715320579152872e-06  2.8735200006741635e+00 -1.1621026674195425e-03 -1.5042325591630139e-04  2.2003403492713285e+00 -2.1676277368928108e-03 -1.4538864151180056e-04  2.0133358473991869e+00 -2.9817643735941595e-03 -5.1018617094347653e-04  3.2798907671537756e+00 -3.7544073330479755e-01 -1.4885330405707492e-02  3.4723100387116421e+00 -4.6054096298507963e-01 -1.7933380832841453e-01  2.9455261819690968e+00 -5.9887198555810073e-01 -4.6909028015586676e-02  3.2488140610998761e+00 -3.6710988199635508e-01 -2.0806133853880485e-01  2.6304211446642328e-03 -1.9682831154661687e-04 1.0049745534220373e-04  3.2542521813857204e+00 2.4398582558883375e-01 9.7776417492740547e-02  1.9870918031637871e-03 -2.3193140118073631e-04 -3.2940330974924592e-04  2.8991267287722996e-03 -3.6387415560451119e-04 -1.0700584402691782e-05  1.3827214161612729e-03 -2.0650009717611140e-04 -1.8298691907158013e-04  2.0661317085644386e-03 1.9393591499926169e-04 -9.5792585994944660e-05  2.9658987201045330e+00 1.6127495436917855e-01 1.7712238511466871e-01  1.7433636536036291e-03 2.1721579426434471e-04 1.6907809079687178e-05  3.7756077342402130e+00 3.5845343616647440e-01 2.7420117330265420e-01  3.5560461374019989e+00 3.4765640019571892e-01 2.2018033990513119e-01  3.8994527643892294e+00 2.7096086241702561e-01 2.6979927401670162e-01  3.4225516238964886e+00 4.1192409293978410e-01 4.0728435400987617e-01  4.8301886491789183e+00 -3.8027685358224017e-01 -6.5248481018545329e-02  5.2777039057041364e+00 -2.2618743932156449e-01 5.8650294208275366e-01  1.8785306445473990e+00 -4.2283733113690347e-01 2.3892511381966974e-01  3.1931131266496697e+00 8.8774380103286601e-02 -5.7358919606190151e-01  2.1769247290063336e+00 5.5184892448098022e-01 -3.0147600270660979e-01  1.7496707868795355e-02 -1.7263214747587175e-02 -3.5079558653306688e-03  1.7478656779719687e-02 -6.6418798987505823e-04 -2.7519893562347398e-05  6.9471598492727932e-04 1.6736098029768026e-03 2.4123586932905598e-03  1.2855701553776220e-03 -3.6369988833643457e-04 -7.0404829192489355e-05  1.7015978295626807e-03 -2.4857521764924917e-04 -3.4083366522312590e-04  3.1241743264492432e+00 1.3562799820400617e-01 -7.4370195228567040e-02  2.6311491109054028e+00 1.5515942207637978e-01 -6.1933604854667701e-02  1.2104775705516315e-03 -1.2300375594590088e-04 -1.8609974162960816e-04  2.4005094716564490e+00 4.8434936064084576e-02 -1.0657241104141928e-01  3.2955331096525553e+00 1.1688449936672329e-01 -1.8115804337585723e-01  3.5512987052259217e+00 -6.9795006132318607e-02 -2.0513832688942657e-01  2.9807747962548543e+00 -1.8101869527566322e-01 7.8921300337633893e-02  3.3994837022400421e+00 2.7116287261488314e-01 8.4492962110264094e-02  3.0732138487791931e+00 -1.9065089198699148e-02 3.1037294930933479e-01  1.0282585135328922e-03 1.0311052288773561e-05 -1.2137978684844411e-05  9.9630010283344866e-04 3.6680752544748991e-06 1.2363635947686808e-05  1.0604316503127287e-03 -4.5015189546736314e-05 -2.0194883548774770e-05  2.0089378634463433e+00 2.1729100041635925e-02 -1.2883696429364338e-02  3.5950791698506159e+00 4.4744948354600321e-02 -4.9993733861414863e-01  3.6360508180350468e+00 -1.0473061314178231e-01 -4.6435790035834079e-01  2.5641104409600080e+00 -5.7957758254971849e-03 -1.2241345118362496e-01  3.2290973187451004e+00 -2.7664807038916200e-02 -1.6016061692565245e-01  2.7686187604260577e+00 -1.2177620848549582e-01 7.6688465085909555e-02  1.5608577056517078e-03 4.4851384389794478e-05 5.1948669371509513e-05  1.9382433317815338e-03 7.2341148326053443e-05 1.6621863954686283e-04  2.6895754560745727e-03 -1.1646453818233830e-03 -3.0171432363071475e-04  3.2614669674788868e+00 2.1058714695517633e-01 -1.0894964702100961e-01  3.5047845010150400e+00 2.1018375589870389e-01 -1.2035492987728312e-01  3.5481492027273283e+00 2.5423636888014434e-01 -1.7056425650070442e-01  2.4491716472499312e+00 1.5848705022858045e-01 -3.8685390228735426e-02  2.5850984872172318e+00 1.1739497030246379e-01 -8.4652418029051116e-02  2.4751731150985550e+00 7.4521957661096719e-02 -4.3240633964466965e-02  1.4567598289947441e-03 1.4496799628386923e-04 5.8561749829343145e-05  2.8999325893696750e+00 8.1201668736241073e-02 -7.1309073406862378e-02  2.3268901523985286e+00 -1.1218772449272702e-02 5.0361047416963831e-02  1.2929279818071722e-03 4.5637595468289813e-05 3.1209197507694217e-04  2.4445457536275391e-03 -2.0599408449315979e-05 4.4078845615933200e-04  1.3163161300764870e-03 1.6935033270407078e-04 -1.0150098305586180e-04  2.5887790502014165e+00 7.9824521617384486e-02 7.9220468756360962e-02  3.9089002543496760e+00 1.5870056111680053e-01 1.4890166935184543e-01  3.6027440684712086e+00 6.1093737478078092e-01 -3.5225039818804471e-01  3.1533926746298686e+00 7.6867141721265675e-01 -2.2284481932951489e-01  3.7341812083345940e+00 7.3400233389572112e-01 -1.5879290468985863e-01  3.0838379112665870e+00 8.0706937010717350e-01 -4.3196343141852173e-01  3.5657077038713667e+00 -2.3818921744687394e-01 2.2836497993587909e-01  3.9181159270519981e+00 -3.7356802827918784e-01 3.8130593555807529e-01  3.7960095279194799e+00 -2.6694352553071243e-01 2.6352709065912039e-01  3.8184921814821955e+00 -4.9010037269804851e-01 3.9187203707649426e-01  3.4717705540268287e+00 -1.1433486334102441e-01 1.3103441393036921e-01  3.4448696061467929e+00 -1.6302303308077487e-01 1.4568099053434830e-01  3.4653694519525584e+00 -1.1796144566678600e-01 6.4273216215442949e-02  3.5713344210282303e+00 -1.1049872713620441e-01 1.1110702536486476e-01  3.5680269499291528e+00 -4.5600171554669097e-03 4.9619108439196606e-03  3.5779503723531367e+00 -6.3064779110304113e-03 -4.2153797500241183e-03  3.5837746071723515e+00 -1.0304316633945649e-02 2.6338171924772356e-03  3.5763284586813788e+00 -1.5463524812882753e-02 -1.2088033991814964e-04  1.0633399907221384e-03 -7.3385205354290702e-06 2.7419142965003849e-06  1.0666884329192674e-03 -1.0534861102681092e-06 -1.2184308505985878e-06  1.0779029400278324e-03 -8.3229371833215458e-07 3.0776948979586857e-07  1.2921004605749122e+00 -9.2704034321143948e-04 -6.1273810273615198e-04  1.0881347807542257e-03 -1.3450627169791353e-06 1.4645578246583536e-06  1.0972657422709583e-03 2.1926428731862532e-07 1.2426274516720786e-06  1.0806647899776513e-03 3.3568455464430292e-07 2.5244449844837918e-07  2.5275552497472051e+00 -7.4272550152447714e-03 -2.5393281888097859e-03  2.9555944886155143e+00 -1.6689811898266424e-01 -2.2121228826430289e-01  1.6657349051451787e-03 -2.3337269599810602e-04 1.5798978570730725e-04  1.8078986755548339e-03 -1.4682406581270892e-04 3.4051319242592223e-04  2.0591412694647314e-03 -1.9371344458458392e-04 1.4289554591704755e-04  1.0956215044617373e-03 -1.1301661384470110e-06 2.2013571061195527e-07  1.9532731684563163e+00 -9.0345723117824189e-04 -2.4024880061171566e-03  2.3455265419697273e+00 -1.0555590341728470e-03 -2.7708479412153330e-03  2.0813791297431723e+00 -7.8066098217566358e-04 -1.9474126133831933e-03  -9.3172245547330990e-01 1.3204076454544580e-01 3.7481912541160783e-01  7.9086826424737522e+00 -1.0786769154742906e-02 -1.4085735860224482e-03  7.9183988825546177e+00 1.0696087867899412e-02 -1.4335746745090970e-02  1.4254107469776010e+00 8.9095775324660520e-01 4.9903917305133627e-01  1.0538029848122681e-03 -1.2079378902173552e-05 1.6273154174220291e-06  1.1027941129032950e-03 -1.3108284629562348e-05 1.2400013525220227e-05  1.0658791945238853e-03 -2.5840628152025312e-05 1.9275785854404196e-07  2.7202583207414759e+00 -3.8917838310185597e-03 -1.6290934186719935e-02  2.0441666194103636e+00 9.2307471209247172e-01 2.0421635469962768e-01  4.0724316668220375e+00 7.9373935525263684e-01 1.9671790694783484e-01  3.1518892061696677e+00 9.7704302741894866e-01 -4.9871634413086669e-03  3.4102438801204258e+00 9.8851142639705625e-01 -4.8554754127310548e-03  2.2646426780266946e+00 8.0423013547164648e-02 3.7162013259930397e-02  2.8084324497893487e+00 9.2808773292045371e-02 4.5338451320262964e-02  2.1772284883714386e-03 -8.8259612004407584e-06 -3.8932711485691854e-05  3.0802471527929542e+00 5.2893293110664463e-01 -8.7687670400788703e-02  3.0840568633633603e+00 1.5612556017015416e-03 3.6176072267072196e-01  3.8736645235677476e+00 -1.5200294667409767e-01 9.5881700477441031e-02  3.6812065956999622e+00 -1.6020589361541918e-01 -4.0728719585497459e-04  2.4981073865167902e-03 2.9962638970656465e-05 -1.6773251729639140e-04  3.3461740938576883e+00 -4.4954781535309100e-03 2.5235744073165495e-02  4.3248400719842994e+00 9.6496190051460415e-02 9.3425820214191241e-02  3.5897145008655418e+00 -2.6533088075209393e-01 -7.6365541526430036e-01  2.6072366200255863e+00 -1.3682137874613431e-01 -8.9260411630898373e-01  3.0904962426915126e+00 -2.0927269129196324e-01 -9.6426273104686422e-01  2.6342487332791555e+00 -4.5345043606936336e-01 -8.7557887186213879e-01  4.5712518516302794e+00 -4.1585730114235643e-02 -2.0510199205366345e-01  4.7444050879812893e+00 -1.1697469349789459e-01 -1.0226673474921000e-01  4.1266261165593860e+00 9.6889007149963263e-03 2.2264082613769967e-01  4.3376851576789690e+00 4.4713138771871254e-02 4.0016626000270111e-01  3.3652011040119207e+00 -5.0036260091491265e-02 7.2285515768940461e-03  3.4198968923787545e+00 3.7961783796256338e-02 2.8337092738310032e-02  3.2550271534064996e+00 -3.8842692063024757e-02 1.5064507278458186e-04  3.3675091245849362e+00 -1.0784150105024145e-02 1.7669468195485562e-02  3.8389100038073134e+00 -1.6593353190561855e-01 1.1862867650866797e-01  3.3379303338132273e+00 -1.7359835933310580e-01 -1.8194075807997548e-01  3.4093600717182944e+00 4.6538648981241503e-03 1.1319150370540142e-01  3.0786558582928176e+00 -2.0908826184298870e-02 4.4063230132850066e-02  1.9906955527272794e+00 -2.0184036883851252e-02 -4.9642699945377969e-02  2.2811111032530378e+00 -1.8632525679285052e-02 -5.8716394492043779e-02  1.3356567486293098e-03 -5.9431866613423472e-05 -4.3634335143272836e-04  1.3050035422720856e-03 1.1073945221119481e-05 1.8273212263505392e-04  2.9756751905563168e+00 1.7556965916137926e-01 -1.7084031939817682e-01  2.5050251703542847e+00 1.0307269288588550e-01 -1.6677506561013974e-01  3.2686627209222112e+00 2.9868626952297367e-01 -1.5722740712790814e-01  3.7919620395295688e+00 3.5430952744028787e-01 -2.3593387564941562e-01  2.5334419642093344e+00 3.9809301814976931e-02 -8.6026053794779372e-02  3.1845296341829887e+00 1.0978703111615129e-01 -1.7743832715336705e-01  3.7029520090093624e+00 1.6487204798586755e-01 -1.8938336537934694e-01  2.9601372689207901e+00 4.6885239585865303e-02 -1.0184519762564977e-01  1.9994037329979561e-01 -2.8740495967440871e-01 4.9070954763645747e-01  4.0628426176049617e+00 -5.8979356396883831e-01 6.3010560174454111e-01  1.2410993070261904e+00 -4.5567331912963133e-01 1.4494136821176336e+00  4.6695537769372342e+00 4.5683944404388482e-01 -2.9292271383744828e-01  3.6498925228742118e+00 2.1307636978878070e-01 2.2564613300749004e-01  3.6092548689414765e+00 1.4176700095557385e-01 1.4566786349971508e-01  3.4705310761176653e+00 1.4057280931857843e-01 1.8277361486173366e-01  3.6021350175337887e+00 1.8939651864516538e-01 1.7825859993424453e-01  3.5152447596862006e+00 -5.0657815493228758e-02 2.1409009769894054e-02  3.2987603630410316e+00 -7.5744109329549933e-02 -1.6261572160731114e-02  3.3526865368731964e+00 -2.0077208072377886e-01 -1.0857177487453512e-02  1.9803708285326049e-03 3.3715806165457874e-04 -1.0940136721460108e-04  3.3312567738128558e+00 1.2989693995758406e-02 2.2274087243295179e-01  2.5546180983613337e-03 2.5191950533235595e-04 -6.1760233033529625e-05  3.5838597656158524e+00 -1.9227936652999805e-02 1.0052676991784194e-03  3.5820011199904007e+00 -2.1586602275616245e-02 4.0437275674848998e-03  3.5739800229142848e+00 -9.4482279067226709e-03 7.5017416051203836e-03  3.1290392624528631e+00 2.5853246682166647e-01 -8.2186700920204567e-02  3.7557795476293849e+00 -5.5186174518129483e-01 -2.7468224741450997e-01  3.6344666335732234e+00 -1.2623115789925501e-01 -2.0495097132663664e-01  3.8043251288812527e+00 -8.0542377354492808e-02 8.5314965081103811e-02  2.4083236512728439e+00 -5.5014989833227321e-02 -5.9712796691257057e-02  3.3032944870849446e+00 -8.1479207934346473e-02 -1.9750152873344407e-01  2.7695446196327875e+00 -2.9501497444534293e-02 -1.3496219303656967e-01  3.1769176332342379e+00 -9.4021712311134140e-02 -9.0889163042613907e-02  1.8718046486333277e+00 -2.8651025076307145e-02 -2.7856499081188226e-02  1.5805475341555573e-03 -2.5131882090155560e-04 3.4934144992061354e-05  